# vtk DataFile Version 3.0
Vortex Output
ASCII
DATASET STRUCTURED_POINTS
FIELD FieldData 2
TIME 1 1 double
5.007915
CYCLE 1 1 int
405
DIMENSIONS 52 52 1
ORIGIN 0 0 0
SPACING 1 1 1
POINT_DATA 2704
SCALARS u double 1
LOOKUP_TABLE default
1.010407607201e+00 1.010407607201e+00 1.042675765645e+00 1.098220212954e+00 1.175631414426e+00 1.265683026941e+00 1.349210127833e+00 1.414545819337e+00 1.460163413915e+00 1.489372799291e+00 1.506352927678e+00 1.514740972803e+00 1.517359909019e+00 1.516190724728e+00 1.512423942162e+00 1.506574400344e+00 1.498711827477e+00 1.488731152300e+00 1.476581916058e+00 1.462400505434e+00 1.446547526713e+00 1.429572838328e+00 1.412133577609e+00 1.394898280569e+00 1.378454840095e+00 1.363248886801e+00 1.349546104735e+00 1.337431184215e+00 1.326822729739e+00 1.317513793155e+00 1.309212508359e+00 1.301593104790e+00 1.294332610624e+00 1.287146557791e+00 1.279803672825e+00 1.272135535986e+00 1.264026067998e+00 1.255396629565e+00 1.246174775246e+00 1.236258755457e+00 1.225467056927e+00 1.213479406105e+00 1.199760405733e+00 1.183471384341e+00 1.163380156687e+00 1.137818354304e+00 1.104820034624e+00 1.062769010970e+00 1.000000000000e+00 1.000000000000e+00 1.000000000000e+00 1.000000000000e+00 
1.000000000000e+00 1.010407607201e+00 1.042675765645e+00 1.098220212954e+00 1.175631414426e+00 1.265683026941e+00 1.349210127833e+00 1.414545819337e+00 1.460163413915e+00 1.489372799291e+00 1.506352927678e+00 1.514740972803e+00 1.517359909019e+00 1.516190724728e+00 1.512423942162e+00 1.506574400344e+00 1.498711827477e+00 1.488731152300e+00 1.476581916058e+00 1.462400505434e+00 1.446547526713e+00 1.429572838328e+00 1.412133577609e+00 1.394898280569e+00 1.378454840095e+00 1.363248886801e+00 1.349546104735e+00 1.337431184215e+00 1.326822729739e+00 1.317513793155e+00 1.309212508359e+00 1.301593104790e+00 1.294332610624e+00 1.287146557791e+00 1.279803672825e+00 1.272135535986e+00 1.264026067998e+00 1.255396629565e+00 1.246174775246e+00 1.236258755457e+00 1.225467056927e+00 1.213479406105e+00 1.199760405733e+00 1.183471384341e+00 1.163380156687e+00 1.137818354304e+00 1.104820034624e+00 1.062769010970e+00 1.000000000000e+00 1.000000000000e+00 1.000000000000e+00 1.000000000000e+00 
1.000000000000e+00 1.010401109114e+00 1.042691516648e+00 1.098492076853e+00 1.176689260811e+00 1.268137311227e+00 1.352533923698e+00 1.418043128425e+00 1.463481197856e+00 1.492424587505e+00 1.509150682619e+00 1.517324555873e+00 1.519773894920e+00 1.518485336427e+00 1.514639962210e+00 1.508738158850e+00 1.500831149132e+00 1.490799810438e+00 1.478585514704e+00 1.464322442709e+00 1.448374769780e+00 1.431296998670e+00 1.413754391057e+00 1.396419842888e+00 1.379887499764e+00 1.364603037030e+00 1.350834635464e+00 1.338663168634e+00 1.328007198229e+00 1.318654323633e+00 1.310312154327e+00 1.302650132945e+00 1.295345846725e+00 1.288111990577e+00 1.280719345411e+00 1.272998721184e+00 1.264837162054e+00 1.256156898779e+00 1.246889180542e+00 1.236934586061e+00 1.226115968051e+00 1.214117268690e+00 1.200408591032e+00 1.184156703232e+00 1.164131670498e+00 1.138656736905e+00 1.105725422317e+00 1.063614271894e+00 1.000000000000e+00 1.000000000000e+00 1.000000000000e+00 1.000000000000e+00 
1.000000000000e+00 1.010367751236e+00 1.042662789441e+00 1.098915538301e+00 1.178636057380e+00 1.272900763685e+00 1.359014474790e+00 1.424830898686e+00 1.469893532949e+00 1.498304839824e+00 1.514534642837e+00 1.522290888653e+00 1.524413347830e+00 1.522890615643e+00 1.518889700060e+00 1.512880746772e+00 1.504881021498e+00 1.494743122005e+00 1.482392726105e+00 1.467961754475e+00 1.451819642018e+00 1.434534161718e+00 1.416782385542e+00 1.399251264650e+00 1.382540953449e+00 1.367103568155e+00 1.353204668330e+00 1.340924599647e+00 1.330174037546e+00 1.320737126933e+00 1.312313107292e+00 1.304569090366e+00 1.297177293386e+00 1.289851181468e+00 1.282360149982e+00 1.274538649816e+00 1.266275601336e+00 1.257498651590e+00 1.248143345332e+00 1.238117060317e+00 1.227249694129e+00 1.215234386980e+00 1.201552032008e+00 1.185380114047e+00 1.165494690849e+00 1.140202386910e+00 1.107420015362e+00 1.065209489113e+00 1.000000000000e+00 1.000000000000e+00 1.000000000000e+00 1.000000000000e+00 
1.000000000000e+00 1.010297678822e+00 1.042541581455e+00 1.099390865407e+00 1.181341291211e+00 1.279961724225e+00 1.368607621212e+00 1.434770724640e+00 1.479183313462e+00 1.506753032611e+00 1.522214712974e+00 1.529333097199e+00 1.530956448453e+00 1.529075594850e+00 1.524832066698e+00 1.518653379439e+00 1.510504702852e+00 1.500197131325e+00 1.487634228014e+00 1.472943602887e+00 1.456505625984e+00 1.438904517359e+00 1.420839247771e+00 1.403012318657e+00 1.386037990358e+00 1.370371318513e+00 1.356279898704e+00 1.343836418632e+00 1.332946332191e+00 1.323382278890e+00 1.314837665474e+00 1.306970584390e+00 1.299451327650e+00 1.291989759612e+00 1.284358111054e+00 1.276392284331e+00 1.267987413961e+00 1.259076160550e+00 1.249602435421e+00 1.239481864204e+00 1.228555624096e+00 1.216530119106e+00 1.202902446385e+00 1.186867487712e+00 1.167210985073e+00 1.142219577541e+00 1.109700470972e+00 1.067405684362e+00 1.000000000000e+00 1.000000000000e+00 1.000000000000e+00 1.000000000000e+00 
1.000000000000e+00 1.010176063386e+00 1.042270363314e+00 1.099788762233e+00 1.184644822997e+00 1.289363175319e+00 1.381304057613e+00 1.447693012029e+00 1.491058538302e+00 1.517397068329e+00 1.531768354479e+00 1.537987044510e+00 1.538908905611e+00 1.536517969088e+00 1.531923423259e+00 1.525493689498e+00 1.517125530637e+00 1.506574599030e+00 1.493715173481e+00 1.478670984482e+00 1.461834366159e+00 1.443813921197e+00 1.425332716038e+00 1.407117374574e+00 1.389794466636e+00 1.373827604096e+00 1.359480559334e+00 1.346821834785e+00 1.335744173322e+00 1.326011757136e+00 1.317305394947e+00 1.309277902589e+00 1.301592760673e+00 1.293960598410e+00 1.286153423703e+00 1.278012885645e+00 1.269438740274e+00 1.260372442489e+00 1.250766197441e+00 1.240547478441e+00 1.229570993227e+00 1.217561066314e+00 1.204036867866e+00 1.188217370202e+00 1.168905434176e+00 1.144366664959e+00 1.112276469538e+00 1.069994145504e+00 1.000000000000e+00 1.000000000000e+00 1.000000000000e+00 1.000000000000e+00 
1.000000000000e+00 1.009986812501e+00 1.041770805656e+00 1.099933799207e+00 1.188311699766e+00 1.301167209470e+00 1.397041521409e+00 1.463286973655e+00 1.505022308835e+00 1.529631226458e+00 1.542514689769e+00 1.547518819885e+00 1.547492075106e+00 1.544401659963e+00 1.539314821237e+00 1.532528228525e+00 1.523851510359e+00 1.512971924136e+00 1.499728446690e+00 1.484238436722e+00 1.466910029263e+00 1.448376852897e+00 1.429393198182e+00 1.410708572612e+00 1.392967499739e+00 1.376637112888e+00 1.361981348737e+00 1.349057804717e+00 1.337750375763e+00 1.327808603481e+00 1.318905369905e+00 1.310683610923e+00 1.302805139557e+00 1.294978037875e+00 1.286978678013e+00 1.278651904581e+00 1.269905579325e+00 1.260688291958e+00 1.250963324506e+00 1.240670201531e+00 1.229680587582e+00 1.217740477873e+00 1.204397251391e+00 1.188902832701e+00 1.170085997531e+00 1.146198106452e+00 1.114769356928e+00 1.072705587974e+00 1.000000000000e+00 1.000000000000e+00 1.000000000000e+00 1.000000000000e+00 
1.000000000000e+00 1.009706198630e+00 1.040943857385e+00 1.099586843585e+00 1.192003053023e+00 1.315418755446e+00 1.415609791088e+00 1.480953532211e+00 1.520217590998e+00 1.542447733941e+00 1.553354616958e+00 1.556761000981e+00 1.555491706571e+00 1.551462550027e+00 1.545705274232e+00 1.538428375401e+00 1.529337951221e+00 1.518039823247e+00 1.504331075454e+00 1.488321652386e+00 1.470432888321e+00 1.451326416630e+00 1.431784842863e+00 1.412584365952e+00 1.394381931618e+00 1.377651465437e+00 1.362650561321e+00 1.349430266684e+00 1.337860335242e+00 1.327681754279e+00 1.318556072214e+00 1.310123205384e+00 1.302040793394e+00 1.294020097694e+00 1.285839010490e+00 1.277349101063e+00 1.268463201092e+00 1.259138898031e+00 1.249348459302e+00 1.239045343956e+00 1.228119198198e+00 1.216342001907e+00 1.203296049161e+00 1.188275816563e+00 1.170149841597e+00 1.147167294746e+00 1.116715887121e+00 1.075208789342e+00 1.000000000000e+00 1.000000000000e+00 1.000000000000e+00 1.000000000000e+00 
1.000000000000e+00 1.009308759201e+00 1.039665216760e+00 1.098438419501e+00 1.195237335137e+00 1.332103943444e+00 1.436502866129e+00 1.499618421784e+00 1.535218875719e+00 1.554236485825e+00 1.562565933983e+00 1.563920458994e+00 1.561046944159e+00 1.555796437183e+00 1.549153881302e+00 1.541231981139e+00 1.531617264846e+00 1.519823315985e+00 1.505599702618e+00 1.489043164674e+00 1.470585227567e+00 1.450907716634e+00 1.430820254347e+00 1.411117265063e+00 1.392468301076e+00 1.375346091941e+00 1.360005407609e+00 1.346485892515e+00 1.334650621850e+00 1.324230520346e+00 1.314885372265e+00 1.306251783119e+00 1.297991457124e+00 1.289817005295e+00 1.281512318422e+00 1.272931642214e+00 1.263993887824e+00 1.254661140348e+00 1.244914708580e+00 1.234719859543e+00 1.223986158933e+00 1.212514846183e+00 1.199930383038e+00 1.185582090123e+00 1.168394846137e+00 1.146638159926e+00 1.117574339751e+00 1.077115548451e+00 1.000000000000e+00 1.000000000000e+00 1.000000000000e+00 1.000000000000e+00 
1.000000000000e+00 1.008761957781e+00 1.037789252606e+00 1.096095802013e+00 1.197354950104e+00 1.351064854105e+00 1.458711696438e+00 1.517473870893e+00 1.547781928061e+00 1.562535132061e+00 1.567571581789e+00 1.566350948598e+00 1.561446182474e+00 1.554637709027e+00 1.546867328498e+00 1.538139877233e+00 1.527910775603e+00 1.515592031545e+00 1.500878556994e+00 1.483845718399e+00 1.464920420183e+00 1.444793546874e+00 1.424285894353e+00 1.404203391064e+00 1.385215551214e+00 1.367793836264e+00 1.352184128496e+00 1.338422531911e+00 1.326365920273e+00 1.315748118275e+00 1.306230558647e+00 1.297459050299e+00 1.289100530099e+00 1.280876067897e+00 1.272571880570e+00 1.264045955891e+00 1.255216643491e+00 1.246048634994e+00 1.236526672456e+00 1.226627001775e+00 1.216278398067e+00 1.205315334771e+00 1.193412458060e+00 1.179987593512e+00 1.164044613003e+00 1.143903709243e+00 1.116740273746e+00 1.077988000931e+00 1.000000000000e+00 1.000000000000e+00 1.000000000000e+00 1.000000000000e+00 
1.000000000000e+00 1.008033119394e+00 1.035148933826e+00 1.092083157832e+00 1.197468584882e+00 1.371863642806e+00 1.480421898026e+00 1.531662923691e+00 1.554537384876e+00 1.563752374599e+00 1.564674027735e+00 1.560312952294e+00 1.552886728723e+00 1.544143245842e+00 1.534989896626e+00 1.525323076568e+00 1.514457681940e+00 1.501696415979e+00 1.486668907809e+00 1.469408427163e+00 1.450312775562e+00 1.430051849509e+00 1.409437430805e+00 1.389264717625e+00 1.370195057361e+00 1.352688148641e+00 1.336986960107e+00 1.323125625416e+00 1.310971147179e+00 1.300268541917e+00 1.290699522525e+00 1.281925755347e+00 1.273631621830e+00 1.265545591009e+00 1.257458762928e+00 1.249224999857e+00 1.240758567073e+00 1.232017579747e+00 1.222986341940e+00 1.213647036770e+00 1.203948070394e+00 1.193760293663e+00 1.182817552854e+00 1.170622874300e+00 1.156285368454e+00 1.138218568932e+00 1.113568897583e+00 1.077354800321e+00 1.000000000000e+00 1.000000000000e+00 1.000000000000e+00 1.000000000000e+00 
1.000000000000e+00 1.007085533407e+00 1.031566459176e+00 1.085841580387e+00 1.194414657883e+00 1.393550947379e+00 1.498621908444e+00 1.537893329207e+00 1.550655509425e+00 1.552860155471e+00 1.548787335609e+00 1.540718546372e+00 1.530238397692e+00 1.519176276383e+00 1.508429749315e+00 1.497790993180e+00 1.486431501741e+00 1.473533255853e+00 1.458637653164e+00 1.441698505648e+00 1.423034682500e+00 1.403251563802e+00 1.383111932377e+00 1.363378178624e+00 1.344683935114e+00 1.327477640071e+00 1.312000032970e+00 1.298302042961e+00 1.286274464011e+00 1.275699710109e+00 1.266294494334e+00 1.257756626487e+00 1.249792588968e+00 1.242144819968e+00 1.234601989140e+00 1.227009627198e+00 1.219265553077e+00 1.211314367731e+00 1.203130413711e+00 1.194698610735e+00 1.185985296135e+00 1.176902231384e+00 1.167252550738e+00 1.156642817412e+00 1.144319716578e+00 1.128841676587e+00 1.107409528843e+00 1.074731392279e+00 1.000000000000e+00 1.000000000000e+00 1.000000000000e+00 1.000000000000e+00 
1.000000000000e+00 1.005887291132e+00 1.026862450239e+00 1.076750946347e+00 1.186689318732e+00 1.414322437667e+00 1.508593561659e+00 1.530005098906e+00 1.529476785613e+00 1.523090495368e+00 1.513184798397e+00 1.500825795128e+00 1.486810576124e+00 1.473168058876e+00 1.460812351113e+00 1.449444802625e+00 1.438084021667e+00 1.425765447590e+00 1.411895784330e+00 1.396280372190e+00 1.379085870537e+00 1.360784762033e+00 1.342047126038e+00 1.323569934826e+00 1.305950583831e+00 1.289623717300e+00 1.274847500318e+00 1.261708443862e+00 1.250155537428e+00 1.240033384043e+00 1.231124856218e+00 1.223177686874e+00 1.215934202939e+00 1.209146663145e+00 1.202598029208e+00 1.196110874566e+00 1.189556983504e+00 1.182853581840e+00 1.175958400441e+00 1.168852851631e+00 1.161521930650e+00 1.153922735832e+00 1.145939175930e+00 1.137302209013e+00 1.127431183751e+00 1.115092522195e+00 1.097646900020e+00 1.069648902884e+00 1.000000000000e+00 1.000000000000e+00 1.000000000000e+00 1.000000000000e+00 
1.000000000000e+00 1.004409650549e+00 1.020878513243e+00 1.064162720459e+00 1.172389287615e+00 1.430999049381e+00 1.503280537230e+00 1.499475234628e+00 1.482144505367e+00 1.465665453622e+00 1.449366050240e+00 1.431908442551e+00 1.414288577729e+00 1.398302758671e+00 1.384876285906e+00 1.373633484397e+00 1.363417415968e+00 1.353058739812e+00 1.341748289628e+00 1.329046088203e+00 1.314869452770e+00 1.299486841832e+00 1.283428345767e+00 1.267309077915e+00 1.251684302094e+00 1.236994464852e+00 1.223538370957e+00 1.211480211650e+00 1.200862583484e+00 1.191635756918e+00 1.183674214449e+00 1.176799264979e+00 1.170790741185e+00 1.165410265098e+00 1.160419360707e+00 1.155606040633e+00 1.150798399098e+00 1.145876652737e+00 1.140771798193e+00 1.135459611781e+00 1.129943857369e+00 1.124233746746e+00 1.118306206779e+00 1.112037842524e+00 1.105059118194e+00 1.096413495409e+00 1.083751917771e+00 1.061685315954e+00 1.000000000000e+00 1.000000000000e+00 1.000000000000e+00 1.000000000000e+00 
1.000000000000e+00 1.002638279930e+00 1.013499890473e+00 1.047467528930e+00 1.149156256357e+00 1.438257441213e+00 1.472464036590e+00 1.434879159679e+00 1.397287809630e+00 1.369736414696e+00 1.347208453037e+00 1.324906864045e+00 1.304291877275e+00 1.287057247499e+00 1.274068364100e+00 1.264793947821e+00 1.257795732655e+00 1.251591280975e+00 1.245053183474e+00 1.237394029231e+00 1.228198788525e+00 1.217475324355e+00 1.205596752791e+00 1.193094690168e+00 1.180503415648e+00 1.168295922658e+00 1.156859107794e+00 1.146478790516e+00 1.137345357718e+00 1.129551650782e+00 1.123097861861e+00 1.117887386307e+00 1.113740783708e+00 1.110412881188e+00 1.107630417174e+00 1.105125866970e+00 1.102671845142e+00 1.100098598829e+00 1.097306819708e+00 1.094264098105e+00 1.090997296628e+00 1.087574605552e+00 1.084078643032e+00 1.080552467559e+00 1.076874256305e+00 1.072438638477e+00 1.065334920510e+00 1.050501801043e+00 1.000000000000e+00 1.000000000000e+00 1.000000000000e+00 1.000000000000e+00 
1.000000000000e+00 1.000573557642e+00 1.004691232504e+00 1.026188103816e+00 1.114180215109e+00 1.427394404279e+00 1.401659140149e+00 1.321351521879e+00 1.261057487669e+00 1.223097831124e+00 1.195954073457e+00 1.171224723236e+00 1.150587290208e+00 1.135151955038e+00 1.125631308202e+00 1.121316347454e+00 1.120426134182e+00 1.121100370463e+00 1.121851184953e+00 1.121503635538e+00 1.119277717533e+00 1.114913898038e+00 1.108641497953e+00 1.100939042689e+00 1.092348214418e+00 1.083421528178e+00 1.074679783112e+00 1.066588788700e+00 1.059529913692e+00 1.053779217841e+00 1.049475438926e+00 1.046608873542e+00 1.045022868635e+00 1.044449454017e+00 1.044555981531e+00 1.045006019372e+00 1.045502456822e+00 1.045822402050e+00 1.045833282931e+00 1.045498843477e+00 1.044873520437e+00 1.044093113426e+00 1.043356688543e+00 1.042890577226e+00 1.042853309229e+00 1.043060781295e+00 1.042203321086e+00 1.035877878925e+00 1.000000000000e+00 1.000000000000e+00 1.000000000000e+00 1.000000000000e+00 
1.000000000000e+00 9.982426765313e-01 9.945286496715e-01 1.000121481655e+00 1.064328867171e+00 1.384193623631e+00 1.270564344961e+00 1.140460824574e+00 1.058655210099e+00 1.015583863414e+00 9.879684626894e-01 9.689169641655e-01 9.548726598492e-01 9.463191905832e-01 9.443033198346e-01 9.482924942240e-01 9.563058006827e-01 9.661994874756e-01 9.762249973267e-01 9.848779918491e-01 9.910481002566e-01 9.942343797418e-01 9.945641275657e-01 9.924947049100e-01 9.886112846036e-01 9.835812100229e-01 9.781092561367e-01 9.728799085264e-01 9.685031748673e-01 9.654479992449e-01 9.639918532711e-01 9.641873439510e-01 9.658786059319e-01 9.687451082192e-01 9.723795822706e-01 9.763625289376e-01 9.803268874542e-01 9.839959595566e-01 9.872112853132e-01 9.899378219933e-01 9.922658398484e-01 9.944049282282e-01 9.966779344087e-01 9.995045041220e-01 1.003345217960e+00 1.008498301086e+00 1.014417978054e+00 1.017748932373e+00 1.000000000000e+00 1.000000000000e+00 1.000000000000e+00 1.000000000000e+00 
1.000000000000e+00 9.956985997045e-01 9.832364047659e-01 9.695166705291e-01 9.965871591738e-01 1.284859360332e+00 1.051061479781e+00 8.725545538483e-01 7.817408646431e-01 7.497063358690e-01 7.387944655255e-01 7.352071610593e-01 7.337019899712e-01 7.356471189652e-01 7.435076956337e-01 7.574800734602e-01 7.755808176776e-01 7.955115807532e-01 8.154206741876e-01 8.335637707612e-01 8.485407024392e-01 8.596341427922e-01 8.669003315844e-01 8.708019452062e-01 8.719783824836e-01 8.712386084557e-01 8.694917585076e-01 8.676630316984e-01 8.665862891829e-01 8.669089847491e-01 8.690081137123e-01 8.729641784981e-01 8.785838168486e-01 8.854758804445e-01 8.931451315185e-01 9.010940649660e-01 9.088908231372e-01 9.162184985658e-01 9.229018153436e-01 9.289180616514e-01 9.343988645759e-01 9.396318192537e-01 9.450635701814e-01 9.513063729449e-01 9.591300726149e-01 9.693554391084e-01 9.823515816111e-01 9.962420631207e-01 1.000000000000e+00 1.000000000000e+00 1.000000000000e+00 1.000000000000e+00 
1.000000000000e+00 9.930280079908e-01 9.712048028787e-01 9.352955730790e-01 9.091320135990e-01 1.087598487843e+00 7.064155914218e-01 5.122296894534e-01 4.540566340373e-01 4.638804397321e-01 4.855938760907e-01 5.016150818251e-01 5.125981833669e-01 5.238239811274e-01 5.401302309284e-01 5.628077259146e-01 5.898778337722e-01 6.187947922581e-01 6.476514572635e-01 6.744991075837e-01 6.976606068708e-01 7.161938752909e-01 7.301094818239e-01 7.398784601933e-01 7.461879075413e-01 7.499807647259e-01 7.523670643075e-01 7.544841747583e-01 7.573506477999e-01 7.617294916351e-01 7.680428166970e-01 7.763466945760e-01 7.863875273875e-01 7.976920790071e-01 8.096891558030e-01 8.218171426152e-01 8.336030179034e-01 8.447058133247e-01 8.549508824394e-01 8.643358001526e-01 8.730387175170e-01 8.814219402690e-01 8.900474821548e-01 8.997061219091e-01 9.114638452573e-01 9.266766501914e-01 9.467442402577e-01 9.717159609091e-01 1.000000000000e+00 1.000000000000e+00 1.000000000000e+00 1.000000000000e+00 
1.000000000000e+00 9.903425248053e-01 9.589905024241e-01 8.992575923305e-01 8.038213943493e-01 7.134569433014e-01 2.106650035742e-01 1.405406407101e-01 1.713986070757e-01 2.320041980324e-01 2.711055194667e-01 2.966350280465e-01 3.126384535040e-01 3.275642826394e-01 3.476591886529e-01 3.753288496535e-01 4.086457693439e-01 4.443627624640e-01 4.802637205546e-01 5.142072681819e-01 5.442675122476e-01 5.692580145735e-01 5.891755703093e-01 6.044988301843e-01 6.159214639994e-01 6.244899505520e-01 6.314617128399e-01 6.381193775805e-01 6.455734510504e-01 6.546208094126e-01 6.656570601216e-01 6.786817295557e-01 6.933713971017e-01 7.091936743749e-01 7.255264542816e-01 7.417794759279e-01 7.574650468544e-01 7.722442676546e-01 7.859569462267e-01 7.986300371738e-01 8.104855713355e-01 8.219512410520e-01 8.336845913502e-01 8.466263161326e-01 8.621040561279e-01 8.819842902681e-01 9.087569072747e-01 9.448034900551e-01 1.000000000000e+00 1.000000000000e+00 1.000000000000e+00 1.000000000000e+00 
1.000000000000e+00 9.877763532026e-01 9.472696498211e-01 8.641571737693e-01 6.921043127056e-01 0.000000000000e+00 -2.106650035742e-01 0.000000000000e+00 1.450601524987e-02 8.217089305747e-02 1.116071313351e-01 1.310103518978e-01 1.435577960114e-01 1.561534976954e-01 1.744558377967e-01 2.020409710829e-01 2.381315332899e-01 2.784811103201e-01 3.193886043328e-01 3.585769675533e-01 3.940732383630e-01 4.244206354493e-01 4.496708062686e-01 4.702888897311e-01 4.869072276241e-01 5.006064843274e-01 5.127058826955e-01 5.245165990333e-01 5.371298475410e-01 5.512781731564e-01 5.672836106499e-01 5.850755008126e-01 6.042903306581e-01 6.243845709865e-01 6.447387030530e-01 6.647679330336e-01 6.840054196075e-01 7.021355997279e-01 7.190296926742e-01 7.347452370295e-01 7.495419637613e-01 7.638934608583e-01 7.785237769504e-01 7.944811214523e-01 8.132987689831e-01 8.372897689847e-01 8.700110000786e-01 9.164637000076e-01 1.000000000000e+00 1.000000000000e+00 1.000000000000e+00 1.000000000000e+00 
1.000000000000e+00 9.854664071365e-01 9.367474884112e-01 8.332790956475e-01 6.117915130600e-01 0.000000000000e+00 1.000000000000e+00 0.000000000000e+00 -5.057044387304e-02 -9.359556861290e-03 -7.519005684586e-04 3.175627713056e-03 7.628597665973e-03 1.432002372346e-02 2.685769523922e-02 4.853288402209e-02 8.253612262686e-02 1.259923738713e-01 1.707423500966e-01 2.135259305416e-01 2.531909305872e-01 2.879908398938e-01 3.181237249097e-01 3.439863910931e-01 3.660468201047e-01 3.853400114202e-01 4.031266662490e-01 4.206187031019e-01 4.387646530168e-01 4.581571551064e-01 4.790121812337e-01 5.012194319375e-01 5.244134676013e-01 5.481385648094e-01 5.718559624790e-01 5.950202332706e-01 6.171979428292e-01 6.381250666142e-01 6.577142423865e-01 6.760554665882e-01 6.934314344018e-01 7.103368942766e-01 7.275240652859e-01 7.460964921260e-01 7.677208019303e-01 7.950542013777e-01 8.326007672787e-01 8.880399065746e-01 1.000000000000e+00 1.000000000000e+00 1.000000000000e+00 1.000000000000e+00 
1.000000000000e+00 9.835429043447e-01 9.280259402219e-01 8.084159341758e-01 5.561244872531e-01 0.000000000000e+00 1.000000000000e+00 0.000000000000e+00 -5.471411747476e-02 -6.244524614834e-02 -7.917174661896e-02 -9.078562610071e-02 -9.528117070948e-02 -9.493788150724e-02 -8.823886077059e-02 -7.211818185397e-02 -4.468891520362e-02 -6.133153452622e-03 4.023056452753e-02 8.580491389756e-02 1.287741659007e-01 1.674568624644e-01 2.022907883943e-01 2.334920110644e-01 2.612905065614e-01 2.865972498697e-01 3.104957812962e-01 3.339681725269e-01 3.577241635219e-01 3.821545993777e-01 4.073493491841e-01 4.332036449165e-01 4.593945781642e-01 4.856375362185e-01 5.116877817629e-01 5.370838354259e-01 5.613313878240e-01 5.842661043086e-01 6.058516519138e-01 6.262128175373e-01 6.456413233002e-01 6.646211612925e-01 6.838907674683e-01 7.045513306471e-01 7.283217918426e-01 7.580749047112e-01 7.990449503334e-01 8.613173856714e-01 1.000000000000e+00 1.000000000000e+00 1.000000000000e+00 1.000000000000e+00 
1.000000000000e+00 9.821105961425e-01 9.215607826683e-01 7.904498071600e-01 5.198292077579e-01 0.000000000000e+00 1.000000000000e+00 -0.000000000000e+00 0.000000000000e+00 -9.055366542696e-02 -1.309839288759e-01 -1.541184616145e-01 -1.660929085909e-01 -1.706103090967e-01 -1.674793863406e-01 -1.550716697194e-01 -1.331133128106e-01 -1.014621101119e-01 -6.215103718776e-02 -1.695505639105e-02 2.913747962138e-02 7.143622258221e-02 1.108968845729e-01 1.474078125882e-01 1.810367346528e-01 2.125148872142e-01 2.426296479666e-01 2.720390379624e-01 3.011363467455e-01 3.300932124315e-01 3.588342229526e-01 3.872142243101e-01 4.153160779907e-01 4.429339378755e-01 4.697601336397e-01 4.957045274596e-01 5.207596877668e-01 5.446888311827e-01 5.673363074796e-01 5.888988463774e-01 6.096660347250e-01 6.300793821322e-01 6.508181097447e-01 6.729249116207e-01 6.980915191237e-01 7.292684636560e-01 7.721375303457e-01 8.385435401333e-01 1.000000000000e+00 1.000000000000e+00 1.000000000000e+00 1.000000000000e+00 
1.000000000000e+00 9.812461864658e-01 9.176497281510e-01 7.797679655602e-01 4.995436389926e-01 0.000000000000e+00 1.000000000000e+00 1.000000000000e+00 0.000000000000e+00 -1.055433099242e-01 -1.594738594657e-01 -1.886153280981e-01 -2.048707055845e-01 -2.114326886190e-01 -2.089125037897e-01 -1.978312651447e-01 -1.791834687101e-01 -1.529909296156e-01 -1.198559686440e-01 -8.076466736343e-02 -3.692333385090e-02 8.817845108549e-03 5.270714227270e-02 9.399732887810e-02 1.330685539770e-01 1.703889236826e-01 2.063404129880e-01 2.411952081062e-01 2.750119652974e-01 3.077172452142e-01 3.392237521681e-01 3.693953436825e-01 3.980941595648e-01 4.253773972523e-01 4.513942473745e-01 4.763164892689e-01 5.002696348018e-01 5.233650136336e-01 5.457676418038e-01 5.674700526709e-01 5.886547881437e-01 6.096887125981e-01 6.311448954732e-01 6.539574532142e-01 6.797221118585e-01 7.113430448952e-01 7.546540641457e-01 8.223474598667e-01 1.000000000000e+00 1.000000000000e+00 1.000000000000e+00 1.000000000000e+00 
1.000000000000e+00 9.809807431418e-01 9.164298807014e-01 7.765005425330e-01 4.936059081021e-01 0.000000000000e+00 1.000000000000e+00 1.000000000000e+00 0.000000000000e+00 -1.083495948973e-01 -1.644150840107e-01 -1.947970053876e-01 -2.110074632661e-01 -2.157414367863e-01 -2.102214938787e-01 -1.974475347310e-01 -1.795914978465e-01 -1.567076883044e-01 -1.283887028908e-01 -9.448972057310e-02 -5.554016491510e-02 -1.113748309951e-02 3.523100744119e-02 7.984275558998e-02 1.232195765402e-01 1.653612364587e-01 2.061473853086e-01 2.453477776873e-01 2.828853760358e-01 3.180795623718e-01 3.505586589224e-01 3.804363275714e-01 4.079457245049e-01 4.334491522227e-01 4.573632043230e-01 4.800806475531e-01 5.019267122994e-01 5.231680899253e-01 5.439822827989e-01 5.645246437222e-01 5.849844383805e-01 6.056617558734e-01 6.269555966471e-01 6.496588069533e-01 6.752152729485e-01 7.063892898182e-01 7.489235201744e-01 8.154953817145e-01 1.000000000000e+00 1.000000000000e+00 1.000000000000e+00 1.000000000000e+00 
1.000000000000e+00 9.812647528183e-01 9.177222309405e-01 7.799529272356e-01 4.998238588175e-01 0.000000000000e+00 1.000000000000e+00 1.000000000000e+00 0.000000000000e+00 -9.896215447332e-02 -1.476702580924e-01 -1.731913115077e-01 -1.844090680780e-01 -1.828438634389e-01 -1.704293677177e-01 -1.532960475872e-01 -1.339994509558e-01 -1.123555671848e-01 -8.706879330910e-02 -5.678199620143e-02 -2.158988701276e-02 2.019763033451e-02 6.376695031839e-02 1.086843155158e-01 1.542218439864e-01 1.991952517869e-01 2.431132118521e-01 2.849460887676e-01 3.234345009398e-01 3.583193902983e-01 3.896757212359e-01 4.176953247599e-01 4.427823919199e-01 4.654799242806e-01 4.863890927519e-01 5.060790842648e-01 5.250400499297e-01 5.436538971267e-01 5.621854140603e-01 5.808265941560e-01 5.997219017018e-01 6.190321948676e-01 6.391842750513e-01 6.609371129483e-01 6.855117562630e-01 7.154875837885e-01 7.563783023397e-01 8.205931259870e-01 1.000000000000e+00 1.000000000000e+00 1.000000000000e+00 1.000000000000e+00 
1.000000000000e+00 9.821208210963e-01 9.216380521668e-01 7.907171395450e-01 5.203341272336e-01 0.000000000000e+00 1.000000000000e+00 -0.000000000000e+00 0.000000000000e+00 -7.887621772889e-02 -1.102343763790e-01 -1.247268839319e-01 -1.259912581475e-01 -1.135823734127e-01 -9.124047299424e-02 -6.822851655528e-02 -4.614317994502e-02 -2.433396618038e-02 -6.155531391258e-04 2.733619347093e-02 5.947874158137e-02 9.651930319451e-02 1.373722314617e-01 1.807914975473e-01 2.253207248258e-01 2.700184446609e-01 3.131047548565e-01 3.533612992858e-01 3.900801151749e-01 4.229048274054e-01 4.517717248411e-01 4.769088766119e-01 4.987913342145e-01 5.180609953781e-01 5.354307253610e-01 5.515970160616e-01 5.671696094977e-01 5.826330368319e-01 5.983271247252e-01 6.144759598574e-01 6.312231199513e-01 6.487281203991e-01 6.672664300663e-01 6.873496945729e-01 7.102573258417e-01 7.384800254878e-01 7.773446015122e-01 8.385646759975e-01 1.000000000000e+00 1.000000000000e+00 1.000000000000e+00 1.000000000000e+00 
1.000000000000e+00 9.835395346648e-01 9.280895546772e-01 8.087358457479e-01 5.568593116270e-01 0.000000000000e+00 1.000000000000e+00 0.000000000000e+00 -4.792962039830e-02 -4.670505075006e-02 -5.161528497568e-02 -4.991300468974e-02 -3.680691771384e-02 -9.340354871758e-03 2.318790277116e-02 5.189118660563e-02 7.685471385143e-02 9.930446596427e-02 1.217485127165e-01 1.464748525640e-01 1.747806682177e-01 2.070322129157e-01 2.435509146661e-01 2.832578466126e-01 3.245632861811e-01 3.658488025795e-01 4.056014698712e-01 4.426451650134e-01 4.761742706303e-01 5.057295350895e-01 5.312068650391e-01 5.528252928625e-01 5.710730077086e-01 5.866195592462e-01 6.002297842526e-01 6.126666339427e-01 6.246187227620e-01 6.366426746597e-01 6.491390108514e-01 6.623632678977e-01 6.764694899399e-01 6.915920321547e-01 7.079519388900e-01 7.260410128611e-01 7.469440919423e-01 7.729202371293e-01 8.087162072494e-01 8.645358483287e-01 1.000000000000e+00 1.000000000000e+00 1.000000000000e+00 1.000000000000e+00 
1.000000000000e+00 9.854486749932e-01 9.367909528778e-01 8.336401814694e-01 6.128057845981e-01 0.000000000000e+00 1.000000000000e+00 0.000000000000e+00 -4.140805348448e-02 9.637925319697e-03 3.197004381339e-02 5.312442642736e-02 8.428584894705e-02 1.272396694571e-01 1.657381231295e-01 1.986055307648e-01 2.255669810447e-01 2.481250262045e-01 2.688767721064e-01 2.901459694074e-01 3.139086669429e-01 3.409077780823e-01 3.718904360797e-01 4.061575894491e-01 4.422234795774e-01 4.784805640637e-01 5.134776153425e-01 5.460182653187e-01 5.752507874495e-01 6.006770743687e-01 6.221565728964e-01 6.398778252430e-01 6.542954563144e-01 6.660583761925e-01 6.759215278274e-01 6.846614642088e-01 6.929937140233e-01 7.015146965436e-01 7.106623645623e-01 7.207217882360e-01 7.318590079285e-01 7.441975245519e-01 7.579268071129e-01 7.734820809783e-01 7.918119707254e-01 8.148812098192e-01 8.466499112373e-01 8.949499641939e-01 1.000000000000e+00 1.000000000000e+00 1.000000000000e+00 1.000000000000e+00 